64
Lattice="6.985667 -0.022316 -0.016979 0.004644 7.003696 -0.008086 -0.00314 0.020336 7.00896" Properties=species:S:1:pos:R:3:Z:I:1:DFT_force:R:3:force:R:3 DFT_energy=-10116.229995 DFT_virial="32.5297 1.54452 3.33666 1.54452 27.5594 -0.294877 3.33666 -0.294877 25.8368" pbc="T T T"
C      -0.01259425      -0.03527315      -0.00740725        6       0.33786303       1.13779352       0.17634114       0.33786303       1.13779352       0.17634114 
C       0.86812497       0.87153371       0.89243984        6      -0.73092966      -0.07745703      -0.78501995      -0.73092966      -0.07745703      -0.78501995 
C       1.73512347       1.76920163      -0.00480557        6       0.09790727      -1.76532244       0.40948116       0.09790727      -1.76532244       0.40948116 
C       2.59061688       2.59935835       0.87653341        6       1.13727756       0.85021460       0.25667765       1.13727756       0.85021460       0.25667765 
C       1.73812477      -0.03447009       1.75424162        6       0.15650707       1.02273578      -0.91948618       0.15650707       1.02273578      -0.91948618 
C       2.58638658       0.85198217       2.61297841        6       1.23591747      -0.18545294       0.75920373       1.23591747      -0.18545294       0.75920373 
C      -0.00444388       1.78253320       1.75770626        6      -1.00863722      -1.42435493      -0.39901457      -1.00863722      -1.42435493      -0.39901457 
C       0.83505129       2.60506601       2.66119227        6       1.07547488       1.46792067      -2.40334037       1.07547488       1.46792067      -2.40334037 
C      -0.01619689       0.02896868       3.46758466        6       0.87533802      -1.21057371       1.86448288       0.87533802      -1.21057371       1.86448288 
C       0.86761834       0.88714022      -2.61647347        6      -0.34842343      -1.31842571      -1.41713267      -0.34842343      -1.31842571      -1.41713267 
C       1.71556636       1.73351732       3.46097640        6       0.93461473       0.77519014       2.43804807       0.93461473       0.77519014       2.43804807 
C       2.63560590       2.59778460      -2.60655866        6      -0.80792732       0.51247518      -2.69183143      -0.80792732       0.51247518      -2.69183143 
C       1.76468898      -0.01125903      -1.79305741        6      -1.64422918       0.50851630       1.87232909      -1.64422918       0.50851630       1.87232909 
C       2.60315415       0.87283465      -0.86964326        6       0.54574306      -0.79406862      -0.55834629       0.54574306      -0.79406862      -0.55834629 
C      -0.03314347       1.73375857      -1.77108883        6       1.70923332       0.17939401       1.43965387       1.70923332       0.17939401       1.43965387 
C       0.89104137       2.64799978      -0.84645322        6      -1.14459864      -1.22732771      -2.41284915      -1.14459864      -1.22732771      -2.41284915 
C       0.01076503       3.49866690      -0.03389009        6      -0.66397967       0.38502117       1.46953027      -0.66397967       0.38502117       1.46953027 
C       0.88558887      -2.65130099       0.84456442        6      -1.40608783       1.24705261       0.82603943      -1.40608783       1.24705261       0.82603943 
C       1.77162115      -1.78027354      -0.00942320        6      -1.65760419       1.13183123      -0.67966908      -1.65760419       1.13183123      -0.67966908 
C       2.59591399      -0.86883982       0.84199072        6       1.22369416      -1.23253345       0.90075637       1.22369416      -1.23253345       0.90075637 
C       1.71262301       3.50098477       1.70614115        6       0.52762279      -0.78810097       2.00607536       0.52762279      -0.78810097       2.00607536 
C       2.57723166      -2.59311060       2.59397616        6       1.61381328      -2.88859096      -0.05144192       1.61381328      -2.88859096      -0.05144192 
C      -0.00821979      -1.73460387       1.77225586        6       0.66201891      -1.72205571      -1.01218005       0.66201891      -1.72205571      -1.01218005 
C       0.91131737      -0.90772302       2.63527545        6      -2.31263055       1.43932747      -0.50401445      -2.31263055       1.43932747      -0.50401445 
C      -0.01630054       3.49558976       3.49291374        6       0.39376071       0.02539986       1.09703840       0.39376071       0.02539986       1.09703840 
C       0.87749471      -2.67164291      -2.65276622        6       0.18101111       1.35323930       0.71318443       0.18101111       1.35323930       0.71318443 
C       1.76756362      -1.78363354       3.47652570        6      -1.43059925       1.48327805       1.62370037      -1.43059925       1.48327805       1.62370037 
C       2.61416221      -0.87317596      -2.63044250        6       0.43249071      -1.68923612      -0.75076395       0.43249071      -1.68923612      -0.75076395 
C       1.75924299      -3.48506144      -1.76014114        6      -0.58955551      -1.90632510       0.16295505      -0.58955551      -1.90632510       0.16295505 
C       2.60245544      -2.64122502      -0.88939963        6       1.54415881       0.71244614       0.16378092       1.54415881       0.71244614       0.16378092 
C       0.03697682      -1.74187988      -1.73035013        6      -2.11890217      -1.98444428      -2.59355272      -2.11890217      -1.98444428      -2.59355272 
C       0.86171638      -0.89922038      -0.90174932        6       1.64420033       0.95907139       1.19454776       1.64420033       0.95907139       1.19454776 
C      -3.47302421      -0.02339056       0.00882455        6      -1.12191865       2.22781737      -0.28556854      -1.12191865       2.22781737      -0.28556854 
C      -2.61777281       0.88830439       0.88049585        6       0.24376290      -0.52387581       0.74483654       0.24376290      -0.52387581       0.74483654 
C      -1.72444546       1.79244045       0.00863549        6      -1.75743087      -1.96579362      -0.40579785      -1.75743087      -1.96579362      -0.40579785 
C      -0.90329111       2.66126903       0.89475154        6       2.58546792      -0.92776207      -1.68087678       2.58546792      -0.92776207      -1.68087678 
C      -1.71692674      -0.02593235       1.78222525        6      -1.49405951       1.51667229      -1.75604792      -1.49405951       1.51667229      -1.75604792 
C      -0.90403903       0.89096305       2.62068001        6       1.87689987      -0.41728453      -0.72151047       1.87689987      -0.41728453      -0.72151047 
C       3.47695797       1.72373982       1.77909467        6      -0.18372546       0.48516495      -1.94442409      -0.18372546       0.48516495      -1.94442409 
C      -2.65220843       2.67676298       2.60531909        6       1.86985230      -1.50312059       0.49589145       1.86985230      -1.50312059       0.49589145 
C       3.48319282      -0.05236889      -3.49953329        6       0.97699381       1.28450899      -0.71406717       0.97699381       1.28450899      -0.71406717 
C      -2.60067098       0.84257790      -2.60467824        6      -1.11854292       1.09012491      -1.48002926      -1.11854292       1.09012491      -1.48002926 
C      -1.72304664       1.76298836       3.47050432        6      -2.33386037       0.06639731       1.22843763      -2.33386037       0.06639731       1.22843763 
C      -0.86468407       2.58874917      -2.65272577        6      -1.14475162       1.08595765       0.56076517      -1.14475162       1.08595765       0.56076517 
C      -1.72587390      -0.03644856      -1.77660438        6      -1.37735118       0.88873978       1.46964484      -1.37735118       0.88873978       1.46964484 
C      -0.90113361       0.84592890      -0.87562562        6       1.37786309       0.90918531       0.00258606       1.37786309       0.90918531       0.00258606 
C       3.46426963       1.71537060      -1.76803035        6       1.87563071      -0.10463783       0.67358265       1.87563071      -0.10463783       0.67358265 
C      -2.62215073       2.62325736      -0.90114981        6      -0.72609689       0.18898203       1.76846037      -0.72609689       0.18898203       1.76846037 
C       3.46607319      -3.50091951       0.01873568        6       1.11470057      -0.86476270      -1.18359813       1.11470057      -0.86476270      -1.18359813 
C      -2.60802696      -2.58324678       0.89010275        6      -1.37653144      -1.37696381      -0.40337278      -1.37653144      -1.37696381      -0.40337278 
C      -1.76919077      -1.72916169       0.01310592        6       0.80197462      -1.42140534      -1.18780434       0.80197462      -1.42140534      -1.18780434 
C      -0.89013679      -0.90294837       0.86227696        6       1.05513235       1.11381138       1.30204738       1.05513235       1.11381138       1.30204738 
C      -1.72060903      -3.47873087       1.73003106        6      -2.24659822       0.67506714       1.52359320      -2.24659822       0.67506714       1.52359320 
C      -0.88382047      -2.63140608       2.66150995        6       0.41932356       0.33004839      -1.64571204       0.41932356       0.33004839      -1.64571204 
C       3.45319903      -1.77994724       1.72918781        6       1.73845484       1.97762152       0.26864241       1.73845484       1.97762152       0.26864241 
C      -2.58304231      -0.86349612       2.65322069        6      -2.71573655      -0.45415219      -1.14944999      -2.71573655      -0.45415219      -1.14944999 
C      -3.48176403      -3.47416627       3.48389340        6      -1.75721324       0.56566311       1.36121546      -1.75721324       0.56566311       1.36121546 
C      -2.65143166      -2.58690925      -2.61824936        6       1.31140822      -2.16174067      -1.02327576       1.31140822      -2.16174067      -1.02327576 
C      -1.76429878      -1.75360502       3.48160498        6       0.71472849       0.06303785       2.07860845       0.71472849       0.06303785       2.07860845 
C      -0.89044704      -0.90022739      -2.63629775        6       1.69898563       0.17541219      -0.49030515       1.69898563       0.17541219      -0.49030515 
C      -1.76743067       3.46916257      -1.75569108        6       0.84198536       1.50169262      -1.10335716       0.84198536       1.50169262      -1.10335716 
C      -0.85752950      -2.65571816      -0.89188751        6      -0.97584687       1.05862206       0.41533955      -0.97584687       1.05862206       0.41533955 
C      -3.48306680      -1.72842226      -1.76301684        6      -1.27316018      -0.35487732       1.23960130      -1.27316018      -0.35487732       1.23960130 
C      -2.62768591      -0.87587081      -0.87807976        6       0.63511714      -0.10478808      -0.15323821       0.63511714      -0.10478808      -0.15323821 
64
Lattice="7.003759 -0.013391 0.017242 -0.01846 6.989758 -0.018319 -0.011056 0.013257 7.016678" Properties=species:S:1:pos:R:3:Z:I:1:DFT_force:R:3:force:R:3 DFT_energy=-10116.363381 DFT_virial="26.739 6.04399 -1.80615 6.04399 30.4454 1.5199 -1.80615 1.5199 22.5216" pbc="T T T"
C       0.00733624      -0.01257104      -0.01661387        6       0.12766428       0.16087509       0.99143424       0.12766428       0.16087509       0.99143424 
C       0.89948307       0.87326898       0.87139891        6      -1.17787261      -0.68549687       0.35657208      -1.17787261      -0.68549687       0.35657208 
C       1.74245228       1.77102144      -0.02370789        6       0.73230580      -0.96948707       0.72259456       0.73230580      -0.96948707       0.72259456 
C       2.63042999       2.65327225       0.88046358        6       0.13160530      -1.53766071      -1.81220926       0.13160530      -1.53766071      -1.81220926 
C       1.76004547      -0.02720302       1.77406614        6       0.13549353       1.49814041      -1.02019187       0.13549353       1.49814041      -1.02019187 
C       2.61262621       0.90798174       2.62032062        6       0.78631242      -1.69203130       0.30805868       0.78631242      -1.69203130       0.30805868 
C      -0.04603686       1.74148770       1.78567626        6       2.24902069      -0.19216601      -1.16567673       2.24902069      -0.19216601      -1.16567673 
C       0.87777263       2.61695352       2.61618652        6      -0.56338688      -0.00769427       0.55885435      -0.56338688      -0.00769427       0.55885435 
C      -0.01395131       0.01248855      -3.49474718        6       1.00318457      -0.90122348       0.34097064       1.00318457      -0.90122348       0.34097064 
C       0.89705551       0.90339429      -2.59226085        6      -1.02773612      -1.90927838      -0.95224414      -1.02773612      -1.90927838      -0.95224414 
C       1.76748514       1.73428966      -3.48544139        6      -0.66978377       0.60335165      -1.05069922      -0.66978377       0.60335165      -1.05069922 
C       2.58533100       2.63016762      -2.62440626        6       1.87803520       0.15853266      -0.67465439       1.87803520       0.15853266      -0.67465439 
C       1.75051718      -0.04082553      -1.73700003        6       0.40618534       1.82288017      -0.78851102       0.40618534       1.82288017      -0.78851102 
C       2.63535549       0.89434275      -0.90747134        6      -0.41094023      -1.54278055       2.11037643      -0.41094023      -1.54278055       2.11037643 
C       0.01735811       1.77644927      -1.72261527        6      -1.37098344      -1.57749310      -1.66405515      -1.37098344      -1.57749310      -1.66405515 
C       0.84368252       2.59710939      -0.89799706        6       1.74393197       2.46158844       1.66297865       1.74393197       2.46158844       1.66297865 
C       0.02847921       3.48166208       0.02582686        6      -2.48817279       0.24589105      -1.68010406      -2.48817279       0.24589105      -1.68010406 
C       0.86475359      -2.62301109       0.86759239        6       1.36427369      -0.62938057       1.37400181       1.36427369      -0.62938057       1.37400181 
C       1.72083279      -1.76126608       0.02485857        6       2.09367816       0.44237686      -1.05289683       2.09367816       0.44237686      -1.05289683 
C       2.65988145      -0.88446656       0.88496431        6      -1.56897464       0.50558059       0.63100295      -1.56897464       0.50558059       0.63100295 
C       1.74939975       3.47991202       1.71369809        6      -0.12761617       1.33650581       1.56340680      -0.12761617       1.33650581       1.56340680 
C       2.66083338      -2.61378351       2.63380008        6      -1.12911745       0.62132381      -1.06471806      -1.12911745       0.62132381      -1.06471806 
C       0.02012385      -1.78071546       1.76681872        6      -0.85008191       0.54349049       0.23441453      -0.85008191       0.54349049       0.23441453 
C       0.90544658      -0.90642454       2.63571028        6      -1.48427173       1.25271958       0.35505416      -1.48427173       1.25271958       0.35505416 
C       0.00066405       3.48810794      -3.51452634        6       0.97175392      -0.33443485      -0.20770369       0.97175392      -0.33443485      -0.20770369 
C       0.91039055      -2.64974360      -2.61929971        6      -1.56765325       2.05100049      -0.84336834      -1.56765325       2.05100049      -0.84336834 
C       1.78003739      -1.73863450       3.50820186        6      -0.92687489      -1.11172586       0.13576975      -0.92687489      -1.11172586       0.13576975 
C       2.61310560      -0.87291009      -2.64072771        6       0.69372628      -0.96104515       0.72701330       0.69372628      -0.96104515       0.72701330 
C       1.72576972      -3.49948038      -1.76065357        6       1.58528557      -0.16146874       1.91070201       1.58528557      -0.16146874       1.91070201 
C       2.66771715      -2.61484642      -0.82406469        6      -2.22135875      -0.98131293      -2.19075885      -2.22135875      -0.98131293      -2.19075885 
C      -0.00600221      -1.71166261      -1.76825603        6      -0.07969602      -2.74463575       0.44154241      -0.07969602      -2.74463575       0.44154241 
C       0.86775384      -0.91199170      -0.90971590        6       0.42132846       1.58321163       1.85731795       0.42132846       1.58321163       1.85731795 
C      -3.48371205      -0.00695774       0.02346970        6      -0.76120639       1.76855783      -2.00514163      -0.76120639       1.76855783      -2.00514163 
C      -2.60597079       0.91656702       0.84283010        6      -0.34148789      -1.74192828       1.43950055      -0.34148789      -1.74192828       1.43950055 
C      -1.72255003       1.76279993       0.02690972        6      -0.70163131       0.15540377      -2.20461414      -0.70163131       0.15540377      -2.20461414 
C      -0.87039766       2.61237358       0.87983536        6      -0.04045839       0.77693209       1.10704997      -0.04045839       0.77693209       1.10704997 
C      -1.73497547       0.00936278       1.74069199        6      -0.88321710       0.01895500       1.00132544      -0.88321710       0.01895500       1.00132544 
C      -0.90313144       0.86941288       2.65016543        6       1.20798966      -0.21327035      -1.07134089       1.20798966      -0.21327035      -1.07134089 
C      -3.48709791       1.77563193       1.70542885        6      -0.76987722       0.24329594       1.29605214      -0.76987722       0.24329594       1.29605214 
C      -2.63575769       2.66992428       2.61217326        6       0.01813325      -2.01472544       0.07784076       0.01813325      -2.01472544       0.07784076 
C       3.47067996      -0.02170092       3.50166401        6       0.64901477       2.10523060       0.45560738       0.64901477       2.10523060       0.45560738 
C      -2.64340277       0.88175289      -2.65883276        6       0.11889545      -0.56723687       0.48185134       0.11889545      -0.56723687       0.48185134 
C      -1.73876691       1.72194156       3.49556169        6      -1.50106688       2.26204913       0.58381096      -1.50106688       2.26204913       0.58381096 
C      -0.84402094       2.63129916      -2.64832749        6      -0.98118209      -1.23848574       0.67344990      -0.98118209      -1.23848574       0.67344990 
C      -1.78238076      -0.03333940      -1.78783483        6       0.01882546       2.38723261       2.00173153       0.01882546       2.38723261       2.00173153 
C      -0.85760664       0.90797063      -0.84851735        6      -0.73714479      -1.81724412      -1.37024939      -0.73714479      -1.81724412      -1.37024939 
C       3.49449345       1.76086678      -1.74814020        6       0.53297478      -0.34652658      -0.93685059       0.53297478      -0.34652658      -0.93685059 
C      -2.60401435       2.63313233      -0.90798601        6      -0.58295695      -0.75695305       0.55335232      -0.58295695      -0.75695305       0.55335232 
C      -3.48840193       3.49661430      -0.04154059        6      -0.15767265       0.32127502       0.78321639      -0.15767265       0.32127502       0.78321639 
C      -2.59988225      -2.64502129       0.84188377        6      -0.05225524       1.97686457       1.37416597      -0.05225524       1.97686457       1.37416597 
C      -1.75551856      -1.72529201      -0.03273906        6      -0.01319600      -0.98863062       1.93158065      -0.01319600      -0.98863062       1.93158065 
C      -0.87925626      -0.90294850       0.90871388        6       0.55047627       1.14043131      -1.42492708       0.55047627       1.14043131      -1.42492708 
C      -1.74773903      -3.48562524       1.77346520        6       0.86562892      -0.17547773      -1.14935076       0.86562892      -0.17547773      -1.14935076 
C      -0.86445070      -2.65260715       2.65600197        6      -0.11603734       1.56632470      -0.95466387      -0.11603734       1.56632470      -0.95466387 
C      -3.46278922      -1.70197871       1.73925813        6      -0.59029555      -2.10570465      -0.09047114      -0.59029555      -2.10570465      -0.09047114 
C      -2.62815659      -0.84890985       2.65978699        6       0.40105980      -0.39739527      -2.37442630       0.40105980      -0.39739527      -2.37442630 
C       3.49514001      -3.46201362       3.48779459        6       0.12068894      -1.66816967       1.45443515       0.12068894      -1.66816967       1.45443515 
C      -2.63313256      -2.62606178      -2.66588765        6       0.80221179      -0.20391324       0.91871273       0.80221179      -0.20391324       0.91871273 
C      -1.75990790      -1.75360229       3.47835342        6       0.41722662       0.49105196       1.54901136       0.41722662       0.49105196       1.54901136 
C      -0.90615516      -0.87648883      -2.61105316        6       1.11134511      -0.20190573      -1.67322115       1.11134511      -0.20190573      -1.67322115 
C      -1.74939952       3.47449322      -1.78290504        6       0.05006848       1.43393702      -0.00604233       0.05006848       1.43393702      -0.00604233 
C      -0.89028114      -2.60216987      -0.83528103        6       1.50687798      -0.86415717      -2.25810172       1.50687798      -0.86415717      -2.25810172 
C       3.49693157      -1.79206880      -1.77164185        6      -0.04122163       1.78967414       1.28371313      -0.04122163       1.78967414       1.28371313 
C      -2.66002948      -0.86577535      -0.86643966        6       1.24022563      -0.48364431      -1.56128038       1.24022563      -0.48364431      -1.56128038 
64
Lattice="7.004302 -0.006652 0.00083 0.000264 7.015328 -0.006957 -0.018148 0.022241 7.026229" Properties=species:S:1:pos:R:3:Z:I:1:DFT_force:R:3:force:R:3 DFT_energy=-10116.429802 DFT_virial="24.6618 2.5537 3.63773 2.5537 21.4127 -1.44111 3.63773 -1.44111 18.0965" pbc="T T T"
C      -0.02056399      -0.03964777      -0.02519437        6       1.34027632       3.30399825       0.57787567       1.34027632       3.30399825       0.57787567 
C       0.89802326       0.90562503       0.90390080        6      -1.20636793      -0.42721880      -0.86903764      -1.20636793      -0.42721880      -0.86903764 
C       1.75433844       1.78510861       0.01132211        6      -0.12425728      -1.35386260      -1.14206185      -0.12425728      -1.35386260      -1.14206185 
C       2.61854377       2.66850334       0.86113181        6       1.02720958      -0.70068169       0.77854608       1.02720958      -0.70068169       0.77854608 
C       1.75764859       0.01975380       1.79174107        6      -1.60579771      -0.30117994      -1.45668023      -1.60579771      -0.30117994      -1.45668023 
C       2.60072740       0.85994707       2.64156302        6       2.11815259       1.46412861       0.34348539       2.11815259       1.46412861       0.34348539 
C      -0.02507539       1.79756717       1.75445451        6       2.57021972      -1.12782901       0.28899988       2.57021972      -1.12782901       0.28899988 
C       0.89706547       2.67187574       2.65453179        6      -0.69215199      -0.75121417      -1.37553880      -0.69215199      -0.75121417      -1.37553880 
C       0.00136676      -0.03622146      -3.50434985        6       0.13362843       1.51833253      -0.74572102       0.13362843       1.51833253      -0.74572102 
C       0.86088677       0.88915248      -2.64062820        6       0.84874807      -1.16531910      -0.20571232       0.84874807      -1.16531910      -0.20571232 
C       1.76759782       1.77134225       3.49014067        6      -1.24032739      -0.44515361       1.49616644      -1.24032739      -0.44515361       1.49616644 
C       2.64197570       2.59136942      -2.61185887        6      -0.06031080       1.13467326      -1.28750114      -0.06031080       1.13467326      -1.28750114 
C       1.75693542      -0.02348647      -1.74537954        6      -0.32032500       1.35052725      -1.31393158      -0.32032500       1.35052725      -1.31393158 
C       2.62038697       0.85220172      -0.91026823        6       0.88248473       0.88650736       1.52976847       0.88248473       0.88650736       1.52976847 
C      -0.01589318       1.74853871      -1.75768086        6       0.50078502       0.27458681      -0.41534998       0.50078502       0.27458681      -0.41534998 
C       0.84339712       2.62606280      -0.89787459        6       1.56900235       0.03902562       1.52891818       1.56900235       0.03902562       1.52891818 
C       0.03493600      -3.50568691       0.04245529        6      -1.51875438      -0.54498011      -2.37277803      -1.51875438      -0.54498011      -2.37277803 
C       0.86412150      -2.64936635       0.87226290        6       0.87198011       1.89947988       1.31228100       0.87198011       1.89947988       1.31228100 
C       1.78385834      -1.78098354       0.04008629        6      -2.12620140       1.52882838      -1.61955462      -2.12620140       1.52882838      -1.61955462 
C       2.58675494      -0.85360703       0.91220972        6       1.65423345      -1.01601526      -1.46797351       1.65423345      -1.01601526      -1.46797351 
C       1.76110110      -3.46803467       1.75004958        6      -1.21715860      -1.52609520       0.04837437      -1.21715860      -1.52609520       0.04837437 
C       2.60371409      -2.63272812       2.59845702        6       1.10005536       1.30246196       1.42353728       1.10005536       1.30246196       1.42353728 
C      -0.04046201      -1.73052215       1.78990687        6       0.97462537      -1.05029961      -2.59615174       0.97462537      -1.05029961      -2.59615174 
C       0.84952281      -0.88194859       2.61071463        6       0.63342555       0.76706222       1.82535483       0.63342555       0.76706222       1.82535483 
C      -0.00903134       3.51392218       3.48721301        6       0.07927890       0.83970476       1.76930152       0.07927890       0.83970476       1.76930152 
C       0.89936428      -2.63194247      -2.62446351        6      -0.66403573       0.48983217      -0.50357350      -0.66403573       0.48983217      -0.50357350 
C       1.76881784      -1.71947635       3.48564188        6      -1.13710294      -1.19450622       0.94376239      -1.13710294      -1.19450622       0.94376239 
C       2.64480130      -0.87454011      -2.64104432        6       0.21483542      -0.99594359       0.36055070       0.21483542      -0.99594359       0.36055070 
C       1.74655689       3.48773309      -1.73909631        6       0.26215301       0.27314934      -1.05407431       0.26215301       0.27314934      -1.05407431 
C       2.62302860      -2.63150402      -0.89016797        6       1.08807932      -0.23311289       1.39425582       1.08807932      -0.23311289       1.39425582 
C      -0.00140062      -1.72385769      -1.71830336        6       0.50008235      -1.74085482      -1.67865013       0.50008235      -1.74085482      -1.67865013 
C       0.87609264      -0.84250094      -0.88779822        6       0.26721483      -2.12958013       1.11774071       0.26721483      -2.12958013       1.11774071 
C       3.49545663      -0.03635850      -0.02511454        6      -0.23190700       1.30143051       0.96743733      -0.23190700       1.30143051       0.96743733 
C      -2.61189840       0.86932971       0.86610236        6      -0.54081971       0.68974055      -0.43411116      -0.54081971       0.68974055      -0.43411116 
C      -1.72104584       1.73630224      -0.02360721        6      -0.82059521       1.13305771       0.65384981      -0.82059521       1.13305771       0.65384981 
C      -0.83930612       2.64303459       0.86618186        6      -1.31563578      -0.64962086       0.17320282      -1.31563578      -0.64962086       0.17320282 
C      -1.74193053       0.02292450       1.74743352        6      -0.39900809      -0.26396661      -0.36854945      -0.39900809      -0.26396661      -0.36854945 
C      -0.86255739       0.90515310       2.60130031        6      -0.97288652      -0.72877880       1.29760694      -0.97288652      -0.72877880       1.29760694 
C      -3.47847807       1.79749771       1.74649539        6      -1.18244185      -1.85374556      -0.13085532      -1.18244185      -1.85374556      -0.13085532 
C      -2.60203700       2.61130451       2.66345517        6      -1.59051450       1.88224988      -2.20048953      -1.59051450       1.88224988      -2.20048953 
C      -3.46061177      -0.01568941      -3.47577985        6      -2.01708663       0.91333268      -1.92922995      -2.01708663       0.91333268      -1.92922995 
C      -2.62685745       0.88365285      -2.66786601        6       0.87719641      -1.13274266       1.10680535       0.87719641      -1.13274266       1.10680535 
C      -1.78707416       1.74928192       3.47687257        6       2.28360600      -0.04172695       2.14257404       2.28360600      -0.04172695       2.14257404 
C      -0.87388121       2.62093189      -2.59894459        6      -0.14591155       0.17894099      -3.01027758      -0.14591155       0.17894099      -3.01027758 
C      -1.76505295      -0.03093495      -1.77802263        6       0.41631844       1.91090634      -0.02803682       0.41631844       1.91090634      -0.02803682 
C      -0.89324234       0.90948217      -0.91876207        6       0.60033663      -2.90726463       1.03623884       0.60033663      -2.90726463       1.03623884 
C      -3.46048502       1.73332570      -1.77104820        6      -1.35596451       0.52260899       0.53568403      -1.35596451       0.52260899       0.53568403 
C      -2.60746069       2.61887737      -0.87699764        6      -0.11033242       0.52359493      -0.11132112      -0.11033242       0.52359493      -0.11132112 